19
 energy: -32.492535672049 gnorm: 0.093846471505 xtb: 6.4.1 (afa7bdf)
O         2.82697000000000    3.54020000000000    3.73613000000000
H         2.52303000000000    4.29417000000000    4.30159000000000
H         2.05795000000000    3.35023000000000    3.14209000000000
O         4.50062000000000    1.51079000000000    1.60213000000000
H         5.49040000000000    1.48893000000000    1.58124000000000
H         4.22339000000000    0.88299000000000    0.88825000000000
O         4.80921000000000    1.63005000000000    6.43830000000000
H         5.43540000000000    1.58262000000000    7.20511000000000
H         4.16769000000000    0.89360000000000    6.59645000000000
Fe        5.27488000000000    4.64671000000000    4.78068000000000
O         5.12470000000000    6.66000000000000    3.02685000000000
H         5.85665000000000    7.11749000000000    2.54147000000000
H         4.54967000000000    6.28527000000000    2.31307000000000
O         5.16800000000000    7.30793000000000    6.37035000000000
H         5.58776000000000    7.37147000000000    7.26493000000000
H         4.30130000000000    6.85796000000000    6.53456000000000
O         7.47274000000000    4.46887000000000    4.75563000000000
H         8.45206000000000    4.54052000000000    4.62870000000000
H         7.15417000000000    3.97340000000000    3.95956000000000
19
 energy: -32.529882815532 gnorm: 0.083560856389 xtb: 6.4.1 (afa7bdf)
O         2.89401575355304    3.63040536938783    3.75806009718145
H         2.46797551641539    4.30358300406645    4.33513281115034
H         2.16494785036076    3.33142289097934    3.16567094103864
O         4.51561452842906    1.51618319497228    1.59366682612892
H         5.48952102172423    1.47839404870739    1.57705805525354
H         4.21308189213597    0.89594125605151    0.90619337152416
O         4.81244362842807    1.67247383492995    6.44537941294999
H         5.43920635162232    1.59249217145364    7.18860558577970
H         4.18155005327222    0.93613924165199    6.56061779893385
Fe        5.22075209255290    4.80432831930122    4.72499328838193
O         5.17621487025303    6.47983729289835    3.05710142595143
H         5.82231613160856    7.10255125493913    2.62197835074527
H         4.53107343998026    6.30469453363626    2.31610979727166
O         5.20335516774700    7.12853492451342    6.33503563020257
H         5.58420974798369    7.38130507932898    7.21899052742829
H         4.25234797206480    6.90195048033651    6.56680121586607
O         7.40717380168344    4.45467707578562    4.70203819009121
H         8.38964716909486    4.57083167013170    4.69436181843160
H         7.21114301109017    3.91745435692897    3.89929485568891
19
 energy: -32.556767786916 gnorm: 0.061139448389 xtb: 6.4.1 (afa7bdf)
O         2.97128381440285    3.73206086914105    3.81017555543850
H         2.42273783109874    4.32276396651246    4.36906332821455
H         2.31367571406267    3.33879139456071    3.19337093791799
O         4.53511312013639    1.51523909535129    1.58082091375633
H         5.48519228631065    1.46920291178438    1.57390307125649
H         4.19908912663208    0.91357277293611    0.92634006970047
O         4.81871528985597    1.70776882431849    6.45185019576089
H         5.43893024154770    1.61242479764921    7.16719591992225
H         4.19361619654829    0.98732121980061    6.52466344346594
Fe        5.15736218664174    5.03323919679426    4.72074600393849
O         5.14800666973852    6.42507321648662    3.07374646371852
H         5.81705682375725    7.01595130032718    2.70666742577107
H         4.55231822797662    6.26428568918491    2.33815599211183
O         5.15886664208627    7.01842986530498    6.30512238520555
H         5.60835955760525    7.29465803794457    7.11713492463991
H         4.23140326036126    6.86936723686773    6.57391476966086
O         7.33479537927736    4.42732683591174    4.63748066698700
H         8.30659897160198    4.61041356302980    4.75690144596032
H         7.28346866035783    3.84530920609450    3.83983648657207
19
 energy: -32.573449896297 gnorm: 0.087290044638 xtb: 6.4.1 (afa7bdf)
O         3.05905446183530    3.84242285355210    3.87987536732428
H         2.39717915970068    4.35759957752029    4.41406541071793
H         2.48524884884159    3.37032322108804    3.22036214381824
O         4.55531258997269    1.53362817429876    1.56507894457984
H         5.50128399329197    1.44832748042617    1.56999148346328
H         4.17315357593471    0.92221750851330    0.94461307533207
O         4.81210476236272    1.76330406934627    6.46593223030839
H         5.45703712134307    1.62105508701196    7.15314613273622
H         4.19962663184511    1.02667399460173    6.47547832063826
Fe        5.10703063087040    5.05805360118898    4.86369214393816
O         5.14269532288934    6.37162310778691    3.03578241653578
H         5.81467690833352    7.01295826173804    2.75432792482025
H         4.53864795624680    6.29572891952637    2.28751344775564
O         5.12390706480070    6.81594985736796    6.23961201240703
H         5.63135526462531    7.23476929990260    6.98968999377310
H         4.15707949053661    6.88110326053450    6.61033052421805
O         7.28892659920024    4.39776988756431    4.60699265688853
H         8.22649403708428    4.64694839406724    4.75947500580511
H         7.30577558028407    3.80274344396505    3.83113076493822
19
 energy: -32.584286168423 gnorm: 0.098963265307 xtb: 6.4.1 (afa7bdf)
O         3.12301392559905    3.92456598030330    3.97340176181463
H         2.41674070385682    4.39907898012630    4.44402077202305
H         2.64358853648061    3.43236521738235    3.26144640598576
O         4.57285787498824    1.56124963428320    1.55001204641837
H         5.52645554682292    1.41528222653715    1.57127792753113
H         4.13735483080243    0.92133384671676    0.96779082453028
O         4.79411811433293    1.84410344345427    6.49051022613719
H         5.48526658153915    1.62846252347781    7.14450797934892
H         4.20136261822340    1.07098470683746    6.41789141482848
Fe        5.05987551855304    5.01234090542645    4.85780638380273
O         5.18066838457276    6.24771695661763    3.01524322171362
H         5.80265556039687    7.03215399468584    2.81737986636881
H         4.50086794991752    6.34063982632305    2.25292081165695
O         5.02173947152303    6.80170005575949    6.23760434977988
H         5.64110251609184    7.14276986112993    6.90583808216019
H         4.16463724531778    6.79621982000900    6.58474982429404
O         7.23610849823966    4.38338819715213    4.57083520743470
H         8.13091113267154    4.67899429407973    4.77770437385952
H         7.33726499006933    3.76984952969866    3.82614852030943
19
 energy: -32.596876707793 gnorm: 0.074918882128 xtb: 6.4.1 (afa7bdf)
O         3.16113187421260    3.97477507627356    4.04389685320666
H         2.44841629467992    4.42002865199870    4.46501587875635
H         2.75223287957696    3.49544147586078    3.30420450758136
O         4.58031699889649    1.58165438021140    1.54208039098976
H         5.54335953727934    1.39408202040280    1.57058497023824
H         4.12246865521099    0.92334993209513    0.97759161237507
O         4.79388571436011    1.89146061017590    6.48709203065191
H         5.49696216114295    1.65178237849952    7.13554260339393
H         4.20159679490900    1.11334345722865    6.38643447478932
Fe        5.04069695503472    4.92481077557434    4.69340618525937
O         5.12984194550531    6.33228201159585    3.02813718420690
H         5.81866069095633    6.95962343067972    2.82641207502424
H         4.52466178569432    6.25387931911126    2.31754898703276
O         4.99514955087712    6.69690578833827    6.23689865430080
H         5.64682694003801    7.09312025681839    6.85235650014927
H         4.11297135655775    6.84839579343618    6.61363511072727
O         7.18653920128848    4.38284719035067    4.54736141685392
H         8.05418535308012    4.71082082387951    4.81738403892692
H         7.36668531069848    3.75459662747024    3.82150652553296
19
 energy: -32.592578664454 gnorm: 0.124651223401 xtb: 6.4.1 (afa7bdf)
O         3.24806514950167    4.10428429438951    4.05809194718126
H         2.31662974180909    4.40690172077521    4.54792286007421
H         2.89251757427247    3.47498594932964    3.31883578473131
O         4.56955078930019    1.55738908216151    1.56465032402691
H         5.52140479706479    1.40304519329091    1.56394498078132
H         4.13282442568642    0.94177842401972    0.97436809373352
O         4.83783546952478    1.88222891321657    6.42600383150185
H         5.46729865167761    1.73338270256707    7.12017605965017
H         4.19809059248278    1.18186911331594    6.40170605284664
Fe        5.06137345540299    4.92325625340904    4.70146605175556
O         5.13218248362629    6.28758065677123    3.03746004018273
H         5.81885957010110    6.93290022071560    2.86507080787276
H         4.50744609369973    6.28710441279237    2.30203990252728
O         4.98405500999499    6.60498487508393    6.19824745994471
H         5.64761607272545    6.99823714194336    6.78860320892066
H         4.07277033126997    6.85102627606046    6.60643700457712
O         7.16381613000793    4.35771013052567    4.54035853350041
H         8.02624692000177    4.73376729940248    4.84252965090663
H         7.37800674184936    3.74076734023043    3.80917740528126
19
 energy: -32.602801498091 gnorm: 0.090132579182 xtb: 6.4.1 (afa7bdf)
O         3.19540254543463    4.01848807933419    4.10467101614868
H         2.43398673445863    4.42433953401475    4.51841324416733
H         2.85147160436249    3.55751894400458    3.34444468100999
O         4.57449874313415    1.54694742689641    1.57719255873676
H         5.51424307428047    1.40678739079872    1.55732740777775
H         4.14629681719571    0.95661037220597    0.97782620401723
O         4.85895516022836    1.90651477358375    6.39487836192953
H         5.45553674353607    1.77891258952489    7.10629912880223
H         4.20321041116875    1.23257635146842    6.38644276775843
Fe        5.08798841347380    4.96391177579326    4.77929245004921
O         5.14678038734216    6.23082857051589    3.03544612621487
H         5.81131246011390    6.93951859910627    2.89188540146875
H         4.49156287886610    6.31478807130963    2.27979885890953
O         4.96298376303868    6.53275400059412    6.17659119067199
H         5.61969104696844    6.97136070316694    6.75080790351552
H         4.06671831652027    6.80948434667158    6.59028413467952
O         7.16199587257541    4.34008875674482    4.53515653818010
H         8.00799122513674    4.73213651293644    4.84842546199823
H         7.38596380216517    3.73963320133008    3.81190656396049
19
 energy: -32.582367625227 gnorm: 0.298830960781 xtb: 6.4.1 (afa7bdf)
O         3.17295508570444    4.03533942147610    4.14158799233562
H         2.41674158139678    4.42007354476257    4.51384681890713
H         2.90001785770079    3.55401807654529    3.34812615976335
O         4.58526628261385    1.58361519220229    1.57238048154896
H         5.53574836691378    1.37827936811383    1.54950952713868
H         4.10572757299461    0.96050997901494    0.99630059093627
O         4.84724746192534    2.00118877036461    6.40364096016256
H         5.48360788730352    1.77049402185315    7.11221842935082
H         4.19730493348026    1.26959041442749    6.31292447201635
Fe        5.08436000636470    4.86932938871901    4.76439252914684
O         5.12442381279646    6.30599480648032    3.02049388801264
H         5.81338155264843    6.94159061470251    2.85279710610176
H         4.52461245723542    6.23050665586474    2.32186012257123
O         4.89890081000894    6.60415649522513    6.23128093022521
H         5.59358706571638    6.99694679823603    6.77716647389767
H         4.13776124838955    6.70395146785189    6.55450518428431
O         7.16833977738248    4.34586645537051    4.52098249854733
H         7.97633902770492    4.69952699974675    4.84095176313757
H         7.41026721171900    3.73222152904365    3.83212407191215
19
 energy: -32.610002704260 gnorm: 0.049289653746 xtb: 6.4.1 (afa7bdf)
O         3.19192667047390    4.02994826107851    4.15050573979547
H         2.38725844883965    4.43054858226609    4.52883138671347
H         2.90851273545835    3.54206733707112    3.33431536941917
O         4.58635753513648    1.58959042368383    1.57570361067961
H         5.53623205225848    1.37117442224806    1.54489816946129
H         4.10486192226895    0.96362507727777    1.00251286802532
O         4.84645983826725    2.02855936955349    6.40153240691662
H         5.48515098335540    1.77436261109798    7.10545978111004
H         4.20656844488364    1.28623475944205    6.30064213177154
Fe        5.08508250753642    4.87551401669712    4.75755752546183
O         5.13807084707020    6.26449722241106    3.03747377565191
H         5.80307289540128    6.94933435741438    2.86382207194811
H         4.51591790257275    6.24835875177553    2.30839021223385
O         4.94337709543430    6.53901739413200    6.19910423690578
H         5.60491643916433    6.97396597249474    6.76566879245173
H         4.06932397915008    6.76486255818142    6.59142460757200
O         7.15913007501491    4.34737971212269    4.52370155170574
H         7.99436021575671    4.71106826856369    4.85806705373957
H         7.41000941195659    3.71309090248948    3.81747870843337
19
 energy: -32.609430492528 gnorm: 0.097829255315 xtb: 6.4.1 (afa7bdf)
O         3.22816280956876    4.08991957697850    4.05839870062197
H         2.41345141684577    4.37096442937258    4.57096411469624
H         2.85517620102268    3.55060596129853    3.41332708489180
O         4.58291154656677    1.55975411212180    1.60339764428713
H         5.52114567931909    1.39569864480828    1.54528083676979
H         4.13178263536343    0.98700425982577    0.99465442045003
O         4.88237509700839    2.05468647061008    6.30808726273929
H         5.45738392399954    1.92332262369098    7.04670689076733
H         4.21605690259896    1.38736709015737    6.31715682594523
Fe        5.10792173434514    4.84174121329636    4.79941885057829
O         5.15326396035663    6.22844197171805    3.05435127350826
H         5.79813272829248    6.91034198970530    2.87225276740759
H         4.50363972358091    6.25065069150477    2.33193471860730
O         4.91990793433998    6.47675900825919    6.19791004805582
H         5.58008031959479    6.94422053915663    6.74474542134876
H         4.05131774228757    6.72723283160718    6.59500941333493
O         7.16707906979168    4.29096693413605    4.53274960259984
H         7.99069902643779    4.69328446467699    4.87136565329289
H         7.41610154868009    3.72023718707665    3.80937847009394
19
 energy: -32.617977743020 gnorm: 0.055614610500 xtb: 6.4.1 (afa7bdf)
O         3.19456218433771    4.08138365945129    4.15410789933966
H         2.38677010877520    4.43768002879528    4.52170649344778
H         2.91292545311405    3.49427048209381    3.41866640614652
O         4.58737702868520    1.56447313465942    1.61753528068787
H         5.52264244850884    1.38886406662720    1.53552628224589
H         4.11525436662994    1.00945373644052    1.00434609947146
O         4.89955126997058    2.14255123111811    6.26073734600693
H         5.46100358778518    2.00722550022100    7.00978585647927
H         4.22737115306437    1.48057291449794    6.27069452809794
Fe        5.11030249194256    4.79154084799145    4.79815525697866
O         5.16145007882531    6.17774446287201    3.06896297098331
H         5.78759635440883    6.90370045360395    2.90864451706662
H         4.49792064835103    6.24359191861617    2.34293380241950
O         4.89137682830467    6.43134888699626    6.20862614071333
H         5.58108924382648    6.88505068338748    6.72550509345383
H         4.03701159263083    6.71121409688773    6.59650807210602
O         7.16905489306745    4.26893432832740    4.52320041304806
H         7.97568036222274    4.68870277719503    4.89541539038288
H         7.45764990555007    3.69489679021910    3.80603215092078
19
 energy: -32.624567802758 gnorm: 0.067417082291 xtb: 6.4.1 (afa7bdf)
O         3.16152782746422    4.07923286071366    4.16167218639963
H         2.33678720696102    4.39188897294959    4.53908487841226
H         2.92367248631017    3.47982187904215    3.40959261278480
O         4.60774754224150    1.59896285186358    1.63456703002817
H         5.54820512408725    1.34488779851764    1.51480136215212
H         4.06302734795035    1.03625970725551    1.04032507503165
O         4.90781157529080    2.35144088150040    6.24554098786313
H         5.49398051924721    2.05438009282915    6.99030265788610
H         4.24279788946332    1.62110568395842    6.12513044696450
Fe        5.11789382453920    4.73489571204474    4.81728607044112
O         5.14523513803294    6.13718921740426    3.09192513034464
H         5.77423286550277    6.88700592975243    2.96200793700744
H         4.51336514806521    6.18415129243383    2.36498507460088
O         4.87978119116640    6.38085144830168    6.22597122091167
H         5.57487556667711    6.80862535423918    6.72134778570354
H         4.02742803861386    6.71044582528156    6.57506942198413
O         7.18509872299226    4.28543117509410    4.51171804976855
H         7.96882391368363    4.66195119388957    4.90320233874181
H         7.50429807171181    3.65467212293019    3.83255973297077
19
 energy: -32.633906903799 gnorm: 0.064872550919 xtb: 6.4.1 (afa7bdf)
O         3.13708709035735    4.06721957068046    4.18126401130472
H         2.28603433768041    4.36841929771214    4.53355949926504
H         2.94650012638184    3.47205766896062    3.40569566111789
O         4.60151600456631    1.60057647902957    1.64913122184505
H         5.53478922409649    1.35636209943064    1.51902821447153
H         4.06750951522204    1.05433621185449    1.04758710142169
O         4.92324212669687    2.50130255622269    6.16143221013651
H         5.50440349165290    2.20845171717478    6.90621519788841
H         4.26851871039810    1.76732039135118    6.06198837191371
Fe        5.10077507096465    4.60982370733934    4.88357540874156
O         5.15124565294285    6.10237685330585    3.11894001086078
H         5.77683551804493    6.82632967764429    2.98558417571255
H         4.50393146688069    6.16594465277210    2.40855158508391
O         4.85671538297909    6.30737568402681    6.23492421542693
H         5.58161972658509    6.80805288521158    6.69465913799793
H         4.03403572967360    6.64878790070075    6.60241612051189
O         7.18416497689478    4.24255837147063    4.50553227766762
H         7.95618274577677    4.67052549996267    4.95269500791844
H         7.56148310220688    3.62537877515122    3.81431057071105
19
 energy: -32.633847836525 gnorm: 0.104021773408 xtb: 6.4.1 (afa7bdf)
O         3.11921712774158    4.04274823818704    4.17758346609707
H         2.25074478481072    4.35471981600626    4.49935016214855
H         2.94892120051471    3.44920009124379    3.40872272757444
O         4.59334463085355    1.58870453320563    1.66075028306977
H         5.50854398184725    1.38274422710246    1.53255886717332
H         4.10707881791646    1.06637554574171    1.05173816615271
O         4.94883046541032    2.58602746185909    6.05118257317038
H         5.49325973224386    2.39892897010615    6.80028071281932
H         4.30311489619447    1.90146181824379    6.06568802068798
Fe        5.09190370577210    4.50055078555993    4.96270406624393
O         5.16000186143706    6.06140819279139    3.15348458769662
H         5.77046754913348    6.76132546783354    3.00809377581456
H         4.49712945089355    6.14396916532606    2.45313007248664
O         4.88013738224231    6.26051480695994    6.26983912448806
H         5.55096952502481    6.75606606484124    6.73485342318381
H         4.03214148244321    6.66130360243760    6.57169303949663
O         7.22237911425596    4.19719254165268    4.52061267933169
H         7.97850963682741    4.61972762421312    4.91417124752326
H         7.51989465444011    3.67023104669055    3.83065300483897
19
 energy: -32.639668548776 gnorm: 0.050900967004 xtb: 6.4.1 (afa7bdf)
O         3.11592914222056    4.04702685220894    4.14102357223773
H         2.27621307115970    4.33325830688824    4.50237636038023
H         2.91296900444282    3.45242945462913    3.42161293959925
O         4.60430952391179    1.60697474226656    1.68154965692376
H         5.52985176408479    1.35850921494799    1.52062373282606
H         4.05608624475577    1.08661571076149    1.07012242994112
O         4.96392189475720    2.64369285282616    6.03569920381627
H         5.51485494584574    2.44322297071584    6.79834726586664
H         4.29214204111894    1.95601105090426    6.03362931881344
Fe        5.07610783502537    4.50739485823692    4.91116269244837
O         5.15103927392564    6.00621308455136    3.16554163574249
H         5.76643666894238    6.77169144813776    3.05821802321910
H         4.50095991425087    6.10389759503070    2.44525402719963
O         4.87464185558376    6.24061781883985    6.27953806639208
H         5.56098879473840    6.72569617422262    6.73840121334807
H         4.03499490334241    6.63331544567841    6.57474786788105
O         7.19993456250361    4.20865549879143    4.51246972772684
H         7.95814016116314    4.64735464413292    4.96934617299467
H         7.58706839823012    3.63062227623136    3.80742609264110
19
 energy: -32.631597923864 gnorm: 0.104207394421 xtb: 6.4.1 (afa7bdf)
O         3.08730420190824    4.03581007956249    4.13043909405558
H         2.22150296377316    4.32113878410696    4.48509354919502
H         2.91176546372588    3.42943350245038    3.37012886052382
O         4.59718045368085    1.61062000777477    1.69986646747297
H         5.53250232371849    1.37514253048485    1.53417097476839
H         4.05022653372645    1.09520027933409    1.06601268528077
O         4.95318344798463    2.66557307389348    6.08325232054085
H         5.54105064073004    2.39749374173717    6.83682771241205
H         4.26850283263772    1.94504951716295    6.00707723599456
Fe        5.12834148835036    4.71153496763127    4.84218641364344
O         5.14716953836551    6.01259749664892    3.17776464967462
H         5.79423101341948    6.71770783675567    3.04509820927285
H         4.48246606244718    6.08737219607436    2.47420806828975
O         4.84197694004025    6.18862420332075    6.26769631179661
H         5.59588520064951    6.78522264366480    6.70404013490445
H         4.03704523776684    6.53369894150811    6.64337710473309
O         7.22728336144820    4.23969651717507    4.52589536963584
H         7.98577275522517    4.59669306714143    4.94614023672369
H         7.57319954040458    3.65459061357426    3.82781460107979
19
 energy: -32.641572573239 gnorm: 0.038468342225 xtb: 6.4.1 (afa7bdf)
O         3.08628198701669    4.02695624236263    4.12045088361263
H         2.23096734547850    4.31565938872907    4.47815427604642
H         2.90020564812120    3.42733798592533    3.37624530602152
O         4.58307825904343    1.60615421387727    1.69849032451990
H         5.50768437073568    1.39344561654330    1.54988616601216
H         4.06979311792270    1.09471805714681    1.07075590498572
O         4.95845208133493    2.66713489275675    6.08093449900638
H         5.54160707031336    2.41618993655248    6.82149834988457
H         4.28583313965604    1.96094114551976    6.02266269557856
Fe        5.10581139447242    4.64694615078613    4.87102042034436
O         5.13955927580393    6.03731636890621    3.15133687099829
H         5.79057225813780    6.71501905669818    3.01301235665979
H         4.48213510309673    6.09373484296769    2.45381673870022
O         4.87726293158679    6.22007403094237    6.29945400920772
H         5.57303392653390    6.69063352364225    6.75747612049749
H         4.03726031781011    6.59261684194310    6.59669833882286
O         7.22567893334318    4.21972109279458    4.51708448838369
H         7.99441105548992    4.62219389999275    4.97987079298464
H         7.58696178410535    3.65640671191535    3.80824145773138
19
 energy: -32.634654014593 gnorm: 0.081771286661 xtb: 6.4.1 (afa7bdf)
O         3.12017191344436    4.03476910065503    4.10760280276159
H         2.27579617503689    4.30574526408019    4.47473508183579
H         2.92487012269015    3.43877269347011    3.39894057378922
O         4.60504743761596    1.63037467908390    1.70583343979405
H         5.51927742692885    1.36466207422583    1.54017817034839
H         4.04413975631135    1.12753162369047    1.10519025464776
O         4.96298276727901    2.72412225809721    6.03655855149782
H         5.53327949547959    2.50834216823342    6.76513279552196
H         4.30711386427724    2.04127741260993    6.01820143709368
Fe        5.04031025266535    4.44797593694634    4.85221882377885
O         5.14285575272192    5.96709879991436    3.13787024548231
H         5.77274366704953    6.74736821707007    3.06643583583817
H         4.49546868455093    6.09472380884689    2.40464419546392
O         4.84791179288215    6.19372994157090    6.32520711626484
H         5.59378043900604    6.70280057962359    6.74250415754992
H         4.02403467990049    6.59215043340242    6.66619777384510
O         7.22704014153952    4.22507633514829    4.51619133255275
H         7.98023676059257    4.60183381495050    4.95539267054421
H         7.55952887003109    3.65484485838257    3.84805474138808
19
 energy: -32.643399063339 gnorm: 0.024133639261 xtb: 6.4.1 (afa7bdf)
O         3.09275987112163    4.02466218535415    4.11576181495884
H         2.23095072505733    4.30464890920675    4.46312323147459
H         2.92748945573182    3.41610702504374    3.36522892802642
O         4.59789238080222    1.63769593049700    1.71836542440507
H         5.51733317892417    1.37269425527192    1.54446894456547
H         4.03254598773305    1.13620335808982    1.10753186324536
O         4.96773353201073    2.72284534689914    6.04554141587570
H         5.55283306438647    2.50046376266160    6.78027572329602
H         4.29539325296449    2.02976525500450    6.01670137648530
Fe        5.07627510939024    4.55915099304365    4.86792007174309
O         5.13587733149377    6.00532086054535    3.13696515503052
H         5.78486011754544    6.70698908279991    3.02652373438107
H         4.48684199343469    6.08573364373421    2.42935916197781
O         4.87050847436817    6.17408897839517    6.32684961267542
H         5.57363219568603    6.67513078740410    6.76689368724545
H         4.03725324333644    6.57214395329548    6.63103987307796
O         7.22394656463180    4.23370531095649    4.51284106559823
H         7.98235584388869    4.61118704007687    4.97549576607310
H         7.59010767749578    3.63466332172229    3.83620314986317
19
 energy: -32.640136791806 gnorm: 0.051864032725 xtb: 6.4.1 (afa7bdf)
O         3.10712976302952    4.01957523527127    4.06246006555400
H         2.27005448363456    4.29286994908374    4.45654585552543
H         2.88237311436183    3.42173323146075    3.36946472604169
O         4.56728857320847    1.64472003251574    1.71474971079139
H         5.48324290673279    1.41997669853129    1.59378858680388
H         4.06548845248894    1.12168786738583    1.10747375123854
O         4.96113623581811    2.65048021982485    6.11266065022942
H         5.55805964383279    2.40879206848746    6.83371523260987
H         4.28021107164665    1.96506576189643    6.05569790609599
Fe        5.08078380109666    4.66891630767177    4.79172878222718
O         5.13916530383709    6.00901344793100    3.10056358259324
H         5.78021302022530    6.74715620645589    2.99492065100729
H         4.49203203279909    6.09720009415786    2.37736109747716
O         4.87160156645389    6.19224170814378    6.33121293046663
H         5.59253323405753    6.66486939643398    6.77769789713679
H         4.03668372502467    6.56022188844124    6.64886816096976
O         7.23100591953481    4.22954982716830    4.52637571189143
H         8.00271771104453    4.61302627974826    4.98963898136323
H         7.57486944117512    3.67610377939266    3.82216571997574
19
 energy: -32.643772570710 gnorm: 0.017288116599 xtb: 6.4.1 (afa7bdf)
O         3.10182863400792    4.00345726349885    4.07040223177650
H         2.25311655222344    4.28556215894884    4.44239294389213
H         2.89634543237505    3.40020334810801    3.34980012312885
O         4.57278791976459    1.67240271161325    1.73085791888786
H         5.48795236590231    1.41005991529174    1.59695492704905
H         4.03197592739741    1.14926495545773    1.13534162893643
O         4.95709637160918    2.70275625090626    6.09014312377888
H         5.56550619040476    2.45366509638993    6.79752243163877
H         4.28961164766226    2.00717383916185    6.02892996618614
Fe        5.07853456693133    4.62131510959203    4.81468112779195
O         5.13270097456833    6.00532223012341    3.11748051785319
H         5.78415160266415    6.71888744906987    2.98988953816265
H         4.49457534411408    6.08267790765798    2.38985294654828
O         4.87438777595150    6.17369230913604    6.32818969408337
H         5.59219889475596    6.64228254657181    6.78204706159594
H         4.03976146217503    6.54672291592860    6.64781223428380
O         7.23552511116388    4.25733130437033    4.51048916829943
H         7.99517960040349    4.60107745284358    5.01182173162683
H         7.59335362592844    3.66934523533194    3.83248068447832
19
 energy: -32.644810759423 gnorm: 0.015002689360 xtb: 6.4.1 (afa7bdf)
O         3.09824428581841    3.98433776043460    4.06612195044876
H         2.23399405823911    4.26419997121996    4.40959749947194
H         2.92746573552112    3.37189134523205    3.32758838774330
O         4.58156502085494    1.71370381352949    1.76764446524537
H         5.48191832920540    1.38941955252826    1.60063407695594